************************************************************************
* This file is part of OpenMolcas.                                     *
*                                                                      *
* OpenMolcas is free software; you can redistribute it and/or modify   *
* it under the terms of the GNU Lesser General Public License, v. 2.1. *
* OpenMolcas is distributed in the hope that it will be useful, but it *
* is provided "as is" and without any express or implied warranties.   *
* For more details see the full text of the license in the file        *
* LICENSE or in <http://www.gnu.org/licenses/>.                        *
************************************************************************
/H.6-31PLUSGPP..4s1p.2s1p.
P.C. Hariharan and J.A. Pople, Theoret. Chimica Acta 28, 213 (1973).
HYDROGEN     (4s,1p) -> [2s,1p]
          1.   1
* S-type functions
    4    2
      18.73113700
       2.82539370
       0.64012170
       0.16127780
  0.03349460  0.00000000
  0.23472695  0.00000000
  0.81375733  0.00000000
  0.00000000  1.00000000
    1     1
       1.10000000
  1.0000000
/C.6-31PLUSGPP..10s4p1d.3s2p1d.
P.C. Hariharan and J.A. Pople, Theoret. Chimica Acta 28, 213 (1973).
CARBON       (11s,5p,1d) -> [4s,3p,1d]
          6.   2
* S-type functions
   11    4
    3047.52490000
     457.36951000
     103.94869000
      29.21015500
       9.28666300
       3.16392700
       7.86827240
       1.88128850
       0.54424930
       0.16871440
	   0.04380000
  0.00183470  0.00000000  0.00000000  0.00000000
  0.01403730  0.00000000  0.00000000  0.00000000
  0.06884260  0.00000000  0.00000000  0.00000000
  0.23218440  0.00000000  0.00000000  0.00000000
  0.46794130  0.00000000  0.00000000  0.00000000
  0.36231200  0.00000000  0.00000000  0.00000000
  0.00000000 -0.11933240  0.00000000  0.00000000
  0.00000000 -0.16085420  0.00000000  0.00000000
  0.00000000  1.14345640  0.00000000  0.00000000
  0.00000000  0.00000000  1.00000000  0.00000000
  0.00000000  0.00000000  0.00000000  1.00000000
* P-type functions
    5    3
       7.86827240
       1.88128850
       0.54424930
       0.16871440
	   0.04380000
  0.06899910  0.00000000  0.00000000
  0.31642400  0.00000000  0.00000000
  0.74430830  0.00000000  0.00000000
  0.00000000  1.00000000  0.00000000
  0.00000000  0.00000000  1.00000000
* D-type functions
    1    1
       0.80000000
  1.00000000
