************************************************************************
* This file is part of OpenMolcas.                                     *
*                                                                      *
* OpenMolcas is free software; you can redistribute it and/or modify   *
* it under the terms of the GNU Lesser General Public License, v. 2.1. *
* OpenMolcas is distributed in the hope that it will be useful, but it *
* is provided "as is" and without any express or implied warranties.   *
* For more details see the full text of the license in the file        *
* LICENSE or in <http://www.gnu.org/licenses/>.                        *
************************************************************************
/H.6-311G-2D-P..5s1p.3s1p
R. Krishnan, J.S. Binkley, R. Seeger and J.A. Pople, J. Chem. Phys. 72, 650 (1980).
HYDROGEN       (5s,1p) -> [3s,1p]
  1.   1
* S-type functions
    5    3
     33.8650000
      5.0947900
      1.1587900
      0.3258400
      0.1027410
  0.0254938      0.0000000      0.0000000
  0.1903730      0.0000000      0.0000000
  0.8521610      0.0000000      0.0000000
  0.0000000      1.0000000      0.0000000
  0.0000000      0.0000000      1.0000000
* P-type functions
    1    1
      0.7500000
  1.0000000
/C.6-311G-2D-P..11s5p2d.4s3p2d
R. Krishnan, J.S. Binkley, R. Seeger and J.A. Pople, J. Chem. Phys. 72, 650 (1980).
CARBON       (11s,5p,2d) -> [4s,3p,2d]
  6.   2
* S-type functions
    11    4
   4563.2400000
    682.0240000
    154.9730000
     44.4553000
     13.0290000
      1.8277300
     20.9642000
      4.8033100
      1.4593300
      0.4834560
      0.1455850
  0.00196665     0.0000000      0.0000000      0.0000000
  0.0152306      0.0000000      0.0000000      0.0000000
  0.0761269      0.0000000      0.0000000      0.0000000
  0.2608010      0.0000000      0.0000000      0.0000000
  0.6164620      0.0000000      0.0000000      0.0000000
  0.2210060      0.0000000      0.0000000      0.0000000
  0.0000000      0.1146600      0.0000000      0.0000000
  0.0000000      0.9199990      0.0000000      0.0000000
  0.0000000     -0.00303068     0.0000000      0.0000000
  0.0000000      0.0000000      1.0000000      0.0000000
  0.0000000      0.0000000      0.0000000      1.0000000
* P-type functions
    5    3
     20.9642000
      4.8033100
      1.4593300
      0.4834560
      0.1455850
  0.0402487      0.0000000      0.0000000
  0.2375940      0.0000000      0.0000000
  0.8158540      0.0000000      0.0000000
  0.0000000      1.0000000      0.0000000
  0.0000000      0.0000000      1.0000000
* D-type functions
    2    2
      1.2520000
      0.3130000
  1.0000000      0.0000000
  0.0000000      1.0000000
  0.0000000      1.0000000 
